# vtk DataFile Version 2.0
Heat Clusters
ASCII
DATASET UNSTRUCTURED_GRID
POINTS 18 float
1 0.249999 0.25
1 0.499999 0.25
-0.25 -1 -0.5
1 0.5 -0.25
1 -0 -0.25
0 -1 -0.25
0.25 -1 -1
1 -1e-06 0.25
1 0.5 0
1 0.25 -0.25
0.25 -1 -0.25
-0.25 -1 -0.75
0.5 -1 -0.75
0 -1 -0.5
0.5 -1 -1
0.5 -1 -0.5
0 -1 -1
1 -0 0
CELLS 18 36
1 0
1 1
1 2
1 3
1 4
1 5
1 6
1 7
1 8
1 9
1 10
1 11
1 12
1 13
1 14
1 15
1 16
1 17
CELL_TYPES 18
1
1
1
1
1
1
1
1
1
1
1
1
1
1
1
1
1
1
POINT_DATA 18
SCALARS scalars float 1
LOOKUP_TABLE default
0
1
2
3
4
5
6
7
8
9
10
11
12
13
14
15
16
17
